41
Properties=species:S:1:pos:R:3:REF_forces:R:3 REF_energy=-2.6193447411060333e-10 E0_sum=-1.3360033932818516e+05
Tc 1.1038800000000000e-01 9.8059700000000005e-01 -1.0944140000000000e+00 3.0104103012087430e-01 -4.5519981069416421e-01 9.7883241680474256e-02
C 6.3038629999999998e+00 -2.3993039999999999e+00 -4.0860399999999997e+00 1.2648337264312614e-02 4.7550499659238356e-03 9.5881586296910210e-03
C 5.2999120000000000e+00 -1.3734540000000000e+00 -3.6661779999999999e+00 -3.1028075282396018e-02 -2.3116430306055941e-02 9.7696785265204162e-03
C 4.0516230000000002e+00 -1.7587500000000000e+00 -3.1572840000000002e+00 1.5203962576642412e-02 -2.6280275827931941e-03 -7.3025505916533380e-03
C 3.1147209999999999e+00 -8.2174700000000001e-01 -2.7829730000000001e+00 9.4983242784839519e-03 6.6236764619248120e-03 1.4467598575906727e-02
C 3.4362050000000002e+00 5.3213299999999997e-01 -2.9246989999999999e+00 4.6035811251021158e-02 -5.6324646966887069e-03 -3.2369985545189203e-02
C 4.6703650000000003e+00 9.5022799999999996e-01 -3.4322780000000002e+00 -1.6697362249084149e-02 -9.3181927774659973e-03 8.4075079692935855e-05
C 5.5893649999999999e+00 -1.2540000000000001e-02 -3.7940689999999999e+00 -9.7763633952421803e-04 1.2896140205621641e-03 -2.8337672732222075e-03
S 2.3476629999999998e+00 1.7567900000000001e+00 -2.4333250000000000e+00 -7.8308094868738451e-02 -1.0208154492600945e-02 8.2747876141330539e-03
O 8.8346599999999997e-01 1.3268510000000000e+00 -2.8306420000000001e+00 2.1818948709228934e-02 1.8269669083476231e-01 -5.8430689146644794e-02
O 2.7167690000000002e+00 3.0427420000000001e+00 -2.8895260000000000e+00 -2.3309725856249054e-02 1.6325169327483253e-02 -9.0055466095558760e-03
N 1.9648740000000000e+00 1.6940020000000000e+00 -8.5233599999999998e-01 -1.6804325290839059e-01 -7.5291265036674132e-02 -4.0619679190582098e-02
C 2.7508029999999999e+00 9.9639200000000006e-01 1.5176899999999999e-01 3.1546255452466795e-02 8.9568653386413163e-02 -6.2671672707865092e-03
C 2.0691999999999999e+00 -3.2514100000000001e-01 4.9177999999999999e-01 2.9669504269865523e-03 -1.3803847676109515e-01 7.1574272339105821e-02
O 2.4649890000000001e+00 -1.1845870000000001e+00 1.1834659999999999e+00 -3.9412443321498892e-03 2.5488941637476538e-02 -1.4955182616058665e-02
O 7.9436799999999996e-01 -4.3441400000000002e-01 -1.2580900000000000e-01 -7.4941749246660139e-02 2.2185176671047335e-01 -4.7015298784960635e-02
H 6.0075079999999996e+00 -3.4017100000000000e+00 -3.7874210000000001e+00 -3.1922819249770383e-04 -1.9741959997377329e-03 -1.6953855519731467e-04
H 7.2812910000000004e+00 -2.1779320000000002e+00 -3.6570000000000000e+00 1.0591403158626298e-03 -3.0059283538411362e-03 -6.1149065301315956e-03
H 6.4178879999999996e+00 -2.3846959999999999e+00 -5.1718460000000004e+00 -3.1948016062644719e-03 1.5098033118436020e-03 -1.2596863775155042e-03
H 3.8174660000000000e+00 -2.8109340000000000e+00 -3.0656159999999999e+00 -8.4522451676623017e-04 -1.8836417395913965e-03 1.3723521265107475e-03
H 2.1491739999999999e+00 -1.1449110000000000e+00 -2.4131540000000000e+00 -4.7577753354796307e-03 7.5672199709680421e-03 -1.2802037822846060e-03
H 4.8890099999999999e+00 2.0032990000000002e+00 -3.5435170000000000e+00 8.5809031795226857e-03 -1.3067375689032939e-03 -2.1487224954428244e-03
H 6.5488460000000002e+00 2.9372799999999999e-01 -4.1902080000000002e+00 -2.2774319293702972e-03 1.9097127276062704e-03 -1.9562496983231551e-03
H 2.7958810000000001e+00 1.5898300000000001e+00 1.0672910000000000e+00 7.1511640261389623e-03 -2.3301395481380400e-02 9.0898787995842643e-03
H 3.7746249999999999e+00 7.9741899999999999e-01 -1.6779100000000000e-01 -7.5684541005782121e-03 -3.2085312981776303e-03 -1.4233833858913405e-02
Cl -3.7822640000000001e+00 1.7661249999999999e+00 1.3076880000000000e+00 -5.6980278322290696e-02 -5.3155196439698203e-02 1.8631191926155855e-02
Ge -1.9633659999999999e+00 8.0823699999999998e-01 9.5979899999999996e-01 -2.9740415300383294e-02 1.9025270079510465e-01 -1.0267680677464888e-01
Cl -2.1462469999999998e+00 -2.4227000000000001e-01 -9.9081200000000003e-01 3.1127628404283195e-02 4.0753325142950263e-02 -1.9197143196553686e-02
Cl -1.2752280000000000e+00 -4.4282700000000003e-01 2.4618159999999998e+00 2.9732496302051364e-02 -4.9259717747258847e-02 6.7764411388372109e-02
C -6.4375000000000004e-01 2.1627399999999999e+00 1.6792299999999999e-01 -3.0953513285114824e-03 1.4525381552696304e-01 6.8676278904087618e-02
C -6.5782600000000002e-01 3.5227729999999999e+00 4.4787600000000000e-01 1.8281676136141858e-02 -7.1626877113739398e-02 -6.7689078060084562e-02
C -1.1877100000000000e+00 4.0322829999999996e+00 1.6704129999999999e+00 -1.8978599411419144e-02 1.6309948395624472e-02 2.6981878511314460e-02
C -1.1392070000000001e+00 5.3752860000000000e+00 1.9316270000000000e+00 -1.1040214960192014e-02 -5.7436906278054162e-03 3.9507214191146646e-02
C -5.9055800000000003e-01 6.2450289999999997e+00 9.8272800000000005e-01 1.0072297391347896e-02 -6.9072691619288130e-03 -5.0916999547517945e-02
C -6.5967999999999999e-02 5.7786720000000003e+00 -2.2776500000000000e-01 -1.3527088968821838e-02 7.2557050885339097e-03 3.7027744960177848e-02
C -8.7510000000000004e-02 4.4359159999999997e+00 -4.9462099999999998e-01 1.3374365429563110e-02 -1.2581694265363354e-02 -9.3151588755076582e-03
H -1.6095370000000000e+00 3.3557039999999998e+00 2.4021629999999998e+00 -3.6588857617560599e-03 -6.1079131290072905e-04 1.0902969463127519e-02
H -1.5248690000000000e+00 5.7665720000000000e+00 2.8625060000000002e+00 -1.7250560846843543e-03 -4.0912939239199113e-03 1.1052659100427909e-03
H -5.7023999999999997e-01 7.3073899999999998e+00 1.1919029999999999e+00 2.0429987255047959e-03 5.2651054493943136e-04 2.7601822952157294e-03
H 3.5387900000000000e-01 6.4735319999999996e+00 -9.4123900000000005e-01 3.2052402858838394e-03 5.1401498263644446e-04 1.4437259556323346e-03
H 3.2568000000000003e-01 4.0624609999999999e+00 -1.4234709999999999e+00 -1.0431480529974902e-02 -2.3624840283379520e-03 -1.1469177843860801e-03
75
Properties=species:S:1:pos:R:3:REF_forces:R:3 REF_energy=1.5388414564658888e+00 E0_sum=-6.7991504233286876e+04
C 7.5191059999999998e+00 6.3197000000000003e-01 -1.2096870000000000e+00 4.2535305455903786e-03 -1.3889079752311986e-01 3.0666115352146125e-02
O 6.4412510000000003e+00 1.4325720000000000e+00 -1.7053739999999999e+00 -5.4148722197953379e-02 -1.2928278997553191e-02 -4.5329889114003041e-02
C 6.4168040000000000e+00 1.5515570000000001e+00 -3.0966040000000001e+00 8.4077239419753660e-02 -1.1558472263363423e-01 6.3243743204246680e-02
N 5.5983109999999998e+00 2.7218789999999999e+00 -3.4019750000000002e+00 -2.9369147975990029e-01 6.5443836344712906e-03 5.3263506739610889e-01
C 4.2812789999999996e+00 2.6714389999999999e+00 -3.0584479999999998e+00 -2.3178615011788462e-01 -3.5712461043724120e-01 -2.9813743168054319e-01
N 3.5260650000000000e+00 1.5944499999999999e+00 -3.3932859999999998e+00 7.4682258069501439e-01 1.5980667189010575e-01 3.9696817636922660e-01
N 3.6945809999999999e+00 3.7107649999999999e+00 -2.4958860000000000e+00 -1.7801394029516773e-02 3.1537153746591780e-02 -3.8050889829077138e-02
C 2.2693940000000001e+00 3.7303160000000002e+00 -2.1610670000000001e+00 9.0314633313694787e-03 3.0035680809616831e-02 -5.0181355455721527e-02
C 1.3407960000000001e+00 3.9395330000000000e+00 -3.3781740000000000e+00 2.9792320734904426e-01 -1.3645688824359323e-01 1.0741247062127957e-01
O 2.2780200000000000e-01 3.0765570000000002e+00 -3.2946580000000001e+00 -3.2809351113030394e-01 9.5002423215864260e-02 -5.1297769669909543e-01
C -8.6257499999999998e-01 3.4741029999999999e+00 -2.4921460000000000e+00 1.9616788401665680e-01 3.1964728234449125e-02 2.6282296715168596e-01
C -1.0167430000000000e+00 2.4506310000000000e+00 -1.3605719999999999e+00 -4.8805774023397502e-01 2.8379437735112961e-01 -1.0789444965611866e-01
F -1.7016510000000000e+00 3.0601660000000002e+00 -3.6275000000000002e-01 9.1610829358844514e-02 -1.6429484132783001e-01 1.7742772873033621e-02
F 2.1976200000000001e-01 2.1615519999999999e+00 -8.8903699999999997e-01 -1.8767732940901211e-01 -1.2514002256245443e-01 2.7769057798748958e-01
C -1.7655179999999999e+00 1.0984879999999999e+00 -1.6511720000000001e+00 1.8897594229131512e-01 5.5102498698347616e-02 1.4471300964737244e-01
F -1.3050759999999999e+00 1.7834900000000001e-01 -7.6592300000000002e-01 -8.6593115474222521e-02 3.0443293251029657e-01 -1.9863156667302881e-01
F -3.0810290000000000e+00 1.3004450000000001e+00 -1.4132880000000001e+00 4.8575099772636310e-01 -7.2540235869400504e-02 -2.7455342051843351e-01
C -1.6518379999999999e+00 4.7067300000000001e-01 -3.0798120000000000e+00 1.4955300886812972e-01 -3.1852586990538206e-01 2.2257003014359319e-01
F -2.3184619999999998e+00 1.2634410000000000e+00 -3.9460720000000000e+00 5.9244391936284554e-03 9.9883714356495235e-02 -3.5509097052794689e-02
F -2.2836770000000000e+00 -7.1323300000000001e-01 -3.0169880000000000e+00 -1.3843602076177164e-01 1.3671250733909998e-01 2.8024872298110678e-02
C -2.3243300000000000e-01 2.1798000000000001e-01 -3.6762020000000000e+00 -1.4539049538128954e-01 -1.1824895135165910e-01 -2.5311653776768683e-01
F 7.1403600000000000e-01 1.9312399999999999e-01 -2.6936160000000000e+00 3.0937572444316775e-03 4.1234841379185526e-03 -4.1164907367942469e-02
F -2.1945400000000001e-01 -9.8136000000000001e-01 -4.2892120000000000e+00 2.9394601899199811e-02 1.7681488053475186e-01 1.6398332644539587e-01
H 7.2207999999999997e+00 2.5500600000000001e-01 -2.3378800000000000e-01 6.7223554086714441e-03 1.1993960607345994e-01 -2.9067917506973993e-02
H 8.4235340000000001e+00 1.2365600000000001e+00 -1.1158830000000000e+00 -2.3325049632242023e-04 -4.7925109417992509e-02 -4.1420320775180888e-02
H 7.7092630000000000e+00 -2.2204499999999999e-01 -1.8654040000000001e+00 -1.6866438005677651e-04 3.1828973977330262e-02 2.4672822010683520e-03
H 7.4112080000000002e+00 1.7100660000000001e+00 -3.5221990000000001e+00 -3.8383847713488004e-02 8.4373070571725189e-02 1.8384623114457002e-02
H 5.9935250000000000e+00 6.5433500000000000e-01 -3.5598999999999998e+00 2.4850485252481128e-02 5.0688068504831124e-02 -8.8170076005686271e-02
H 6.0383170000000002e+00 3.5317870000000000e+00 -2.9765450000000002e+00 7.2217356710139374e-02 1.1212484027151833e-01 -3.6353298270425816e-01
H 4.0322440000000004e+00 8.4665100000000004e-01 -3.8434130000000000e+00 -6.0340093341848519e-02 -2.0861366975870002e-02 -8.8485550387286376e-03
H 2.8645269999999998e+00 1.2595630000000000e+00 -2.7020830000000000e+00 -2.8504815019092972e-01 1.6446756805118695e-01 -2.0260350997923174e-01
H 4.2618049999999998e+00 4.5022240000000000e+00 -2.2345969999999999e+00 3.3986181113843009e-02 -7.5172994282366026e-02 4.6651230549960024e-02
H 2.0189070000000000e+00 2.7818600000000000e+00 -1.6906920000000001e+00 5.7381884666267348e-04 1.5948888351548660e-01 2.0787422043393892e-02
H 2.1250439999999999e+00 4.5068679999999999e+00 -1.4123049999999999e+00 7.0278641936694072e-02 -6.4153913791748202e-02 3.4384187913123331e-02
H 1.0469940000000000e+00 4.9879300000000004e+00 -3.4743010000000001e+00 -1.2771112591697845e-01 -5.0228509491243495e-02 4.1906053620917573e-02
H 1.8669770000000001e+00 3.6628850000000002e+00 -4.2942489999999998e+00 -3.5771760971492858e-02 -2.1313932588333320e-03 7.3894641694496679e-02
H -6.8718000000000001e-01 4.4338509999999998e+00 -1.9935940000000001e+00 6.3921897425035956e-02 -7.2263019505715717e-02 -4.3351013706160076e-02
H -1.7739910000000001e+00 3.5726589999999998e+00 -3.0842450000000001e+00 2.9875501070629990e-02 -1.5870762805018093e-01 1.4469346926187803e-02
H 4.9270000000000000e-03 9.8468599999999995e-01 -4.4102059999999996e+00 9.4623596847608696e-02 1.0305506750016642e-01 1.3886986874181403e-01
F -5.4634630000000000e+00 -2.3110689999999998e+00 2.7441490000000002e+00 -3.8917248815417563e-03 4.5650248591976736e-02 -4.7468121507759406e-02
C -5.1883109999999997e+00 -2.3979550000000001e+00 1.4251240000000001e+00 8.3335116147503843e-03 -2.0622305785966358e-02 -3.6763846911869499e-02
C -5.9696559999999996e+00 -3.2157580000000001e+00 6.3470199999999999e-01 -4.3252746135950162e-02 -3.6690364777997211e-02 8.6659038564232509e-03
C -5.6772260000000001e+00 -3.2994610000000000e+00 -7.1898499999999999e-01 3.5523958030183836e-02 1.8187470909232097e-02 1.0296343337661121e-02
C -4.6204590000000003e+00 -2.5766410000000000e+00 -1.2550070000000000e+00 2.5616365519726746e-02 5.3860501511911237e-03 -4.6156601686616699e-02
C -3.8505870000000000e+00 -1.7613960000000000e+00 -4.3687700000000002e-01 -3.1190630720882445e-01 -1.6912995545221371e-01 1.3469527106920753e-01
C -4.1344029999999998e+00 -1.6664740000000000e+00 9.1831399999999996e-01 8.2915614924179690e-02 6.4961445933337109e-02 2.9351458784910901e-02
H -6.7860100000000001e+00 -3.7719230000000001e+00 1.0748970000000000e+00 -2.2819056492071692e-03 1.3894345371982050e-02 1.1090711430074866e-02
H -6.2792190000000003e+00 -3.9329809999999998e+00 -1.3560589999999999e+00 -7.0362871282588285e-03 -1.3696576101952062e-02 1.5506838551805342e-03
H -4.3969269999999998e+00 -2.6495120000000001e+00 -2.3111199999999998e+00 -5.7326348833809625e-03 6.7786625721355208e-03 -6.4380942217952672e-03
H -3.0414819999999998e+00 -1.1895020000000001e+00 -8.4699300000000000e-01 6.1721752862502643e-02 -8.0502017361153810e-02 -7.7421578432098565e-03
H -3.5521289999999999e+00 -1.0365519999999999e+00 1.5779490000000000e+00 -1.5066254280974106e-02 -7.5105528530343317e-03 1.2774321328684293e-02
F -6.1868350000000003e+00 -6.7031530000000004e+00 7.8687459999999998e+00 -3.1582919386302310e-03 -5.6053138452649334e-03 1.7425395874951176e-03
C -5.6840840000000004e+00 -5.7098259999999996e+00 7.1086809999999998e+00 1.8549687949817446e-02 3.1496633157724475e-02 -2.4966030637233436e-02
C -4.6333200000000003e+00 -4.9625490000000001e+00 7.6002700000000001e+00 3.6395562067367479e-02 3.4254295771652772e-03 5.5874189659174456e-02
C -4.1220889999999999e+00 -3.9436499999999999e+00 6.8095379999999999e+00 -2.5633797600470420e-02 -5.0041898809772140e-03 -3.9144534351957486e-02
C -4.6615419999999999e+00 -3.6848950000000000e+00 5.5568229999999996e+00 1.4416742151554245e-02 8.5216135361673613e-03 -5.5864933687098176e-03
C -5.7197290000000001e+00 -4.4512850000000004e+00 5.0874300000000003e+00 3.3774682151899861e-02 -6.0517756583646137e-02 1.3420871547039742e-01
C -6.2382410000000004e+00 -5.4763849999999996e+00 5.8664670000000001e+00 -5.8788175357057812e-02 -3.1275415425101226e-02 -6.0041382554119914e-02
H -4.2319509999999996e+00 -5.1790550000000000e+00 8.5807760000000002e+00 -8.1380563377394660e-03 -1.6114081742076829e-02 -1.0013419124529296e-03
H -3.2966110000000000e+00 -3.3485369999999999e+00 7.1769610000000004e+00 3.0066482627804031e-03 6.4092464421575080e-03 1.3562724461315540e-02
H -4.2606809999999999e+00 -2.8874379999999999e+00 4.9474819999999999e+00 -9.9897649736676742e-03 1.1550784664333395e-02 -2.0330125600758246e-02
H -6.1466700000000003e+00 -4.2523580000000001e+00 4.1157719999999998e+00 3.2937376633465566e-03 2.1754619703298742e-02 -3.0155751336273105e-02
H -7.0594400000000004e+00 -6.0905839999999998e+00 5.5227259999999996e+00 -5.6927313593187496e-03 -3.3835720145536266e-03 2.2081406939658745e-02
F 5.7015359999999999e+00 1.7000799999999999e-01 1.7986800000000001e+00 7.6177112986441836e-02 -1.1501008103389811e-02 -7.7490484001999805e-03
C 4.3805230000000002e+00 4.4166600000000000e-01 1.8015559999999999e+00 -1.3296167892138616e-01 4.9134762124228973e-02 8.7043161405398386e-03
C 3.6184759999999998e+00 3.1743000000000000e-02 7.2591399999999995e-01 2.8546857701146146e-02 1.4059564473543765e-02 -1.2063647792667014e-01
C 2.2604530000000000e+00 3.1982300000000002e-01 7.2615600000000002e-01 7.7180923158115108e-03 4.7188128352451744e-02 -6.0115841707266929e-02
C 1.6879310000000001e+00 1.0061199999999999e+00 1.7883940000000000e+00 4.5601089095838234e-04 3.1961642910423693e-02 8.9388521885395214e-03
C 2.4779840000000002e+00 1.3999170000000001e+00 2.8602569999999998e+00 -8.8098856442765973e-03 -5.4703823412195120e-03 -5.9523150961982046e-02
C 3.8374950000000001e+00 1.1189739999999999e+00 2.8741780000000001e+00 5.2486246768918145e-02 1.5763537510721022e-02 4.1037946284296072e-02
H 4.0867389999999997e+00 -5.0509000000000004e-01 -8.8963000000000000e-02 1.7003477814473783e-02 -4.0755382025633877e-02 2.5719055387706434e-02
H 1.6468370000000001e+00 3.5599999999999998e-03 -1.0820600000000000e-01 -3.8770284547672965e-02 -4.7249680566759045e-02 2.4673130543086060e-02
H 6.2959699999999996e-01 1.2288690000000000e+00 1.7823359999999999e+00 -5.3160132958138887e-03 -1.6519853273487813e-02 6.9364254739691161e-03
H 2.0358999999999998e+00 1.9302060000000001e+00 3.6927170000000000e+00 5.7983522851225979e-04 -1.0005088749660638e-02 1.7780773780613487e-02
H 4.4699609999999996e+00 1.4128620000000001e+00 3.7005669999999999e+00 9.6144353059742556e-03 -5.1131532411419428e-03 -3.6118345703682704e-03
105
Properties=species:S:1:pos:R:3:REF_forces:R:3 REF_energy=-5.7029101690568496e-01 E0_sum=-8.1066443626979060e+04
C 6.0290160000000004e+00 -4.2469000000000000e-02 3.6206800000000001e+00 -4.8617965207762942e-01 -2.1421918929223332e-03 -4.1342992270690221e-01
C 5.4256320000000002e+00 -3.9715800000000001e-01 2.2625780000000000e+00 7.5672719072558026e-01 1.6099318466615151e-01 6.6576309670453271e-01
O 5.7764499999999996e+00 6.8208299999999999e-01 1.3406140000000000e+00 -3.5777206568397746e-01 -1.1117949699012693e-01 -2.1819493783140093e-01
P 4.9111380000000002e+00 8.2697399999999999e-01 2.1618999999999999e-02 -6.1611622221414963e-01 -2.8426087834377445e-01 -2.7274259242584226e-01
O 3.8959130000000002e+00 -2.3101700000000000e-01 -1.7104800000000001e-01 5.3770255784167449e-02 -9.8341617986518800e-03 6.1250212507282929e-02
C 4.0894320000000004e+00 2.4440140000000001e+00 1.1942800000000001e-01 3.3509071748757402e-01 2.2842854624721165e-01 5.1269497817423189e-02
C 2.5700949999999998e+00 2.2634080000000001e+00 1.5490599999999999e-01 2.8452194817839277e-01 1.2381806406169235e-01 5.0905789536892215e-03
C 1.9085610000000000e+00 1.9355400000000000e+00 -1.1515880000000001e+00 -5.3355331124814354e-01 -1.6465844676422681e-01 5.7740759272491810e-02
C 2.6219160000000001e+00 1.9436359999999999e+00 -2.3687600000000000e+00 5.7906477168104298e-01 6.5782090702034085e-02 2.3664651247720972e-01
N 2.1443629999999998e+00 1.6647879999999999e+00 -3.5575100000000002e+00 -4.2170440178863272e-01 2.1440379451308812e-02 4.1702617639094208e-01
N 8.5223599999999999e-01 1.3928050000000001e+00 -3.5490740000000001e+00 -1.3847134772186279e-01 -8.5030038900873156e-02 -2.7226128187787535e-01
C 5.8620999999999999e-02 1.3841289999999999e+00 -2.4937540000000000e+00 -2.3799855288721974e-01 3.7700602708056787e-02 7.8461204073500346e-01
C 5.4291100000000003e-01 1.6353970000000000e+00 -1.2068600000000000e+00 4.1529474396993854e-01 1.9322741595422185e-01 -5.0000869142440652e-01
C -3.5689500000000002e-01 1.6198910000000000e+00 -3.3960000000000001e-03 8.9818513210405806e-02 -1.4262229124360767e-01 2.0576133911925815e-01
C -1.0440750000000001e+00 2.9742400000000002e-01 3.0122700000000002e-01 9.2465258425619951e-02 1.7762724635064728e-03 2.8957977127534541e-02
C -1.8459330000000000e+00 -4.1224000000000000e-01 -5.8521900000000004e-01 1.5061610868315833e-01 2.6571741246407499e-01 -2.0024071741849123e-01
C -2.4610270000000001e+00 -1.5894509999999999e+00 -2.0619199999999999e-01 -2.9970853009635867e-01 -7.2680206736020797e-02 -2.4426232630157829e-01
C -2.3148249999999999e+00 -2.0907220000000000e+00 1.0738479999999999e+00 -1.6789716281578652e-02 3.8494970800470533e-02 -1.8604539868782860e-01
C -1.5056320000000001e+00 -1.3979050000000000e+00 1.9562450000000000e+00 -3.1322600313863458e-01 -3.7503712755374052e-01 3.3895385169981346e-01
C -8.8806200000000002e-01 -2.2315099999999999e-01 1.5770100000000000e+00 2.4892306819645821e-01 4.7833063917900549e-02 2.3952445130606267e-01
O 5.9169729999999996e+00 9.4756099999999999e-01 -1.2008870000000000e+00 -2.8686602310671244e-01 4.0910933778582584e-02 1.9677826395302081e-01
C 6.1426740000000004e+00 -2.6090700000000000e-01 -1.9672380000000000e+00 9.7930292871862046e-01 -3.6594421485219786e-01 -2.9825971335608437e-01
C 6.8273570000000001e+00 -1.3706879999999999e+00 -1.1686589999999999e+00 -1.7631490377643114e-01 -3.9255657438940016e-02 -3.8092845093616262e-01
H 5.9982509999999998e+00 1.0422140000000000e+00 3.7188639999999999e+00 2.0667742324447505e-01 -1.1079707107717501e-02 1.3155384556858296e-01
H 5.3881860000000001e+00 -4.5000099999999998e-01 4.4019969999999997e+00 2.0445619563443465e-01 -1.4436411092216353e-01 9.4784702183803166e-02
H 7.0416390000000000e+00 -4.2185000000000000e-01 3.7209089999999998e+00 5.6242165971273947e-02 1.6623139637445750e-01 1.0762222123294166e-01
H 4.3492410000000001e+00 -5.0128899999999998e-01 2.3683900000000002e+00 -5.2769068137915778e-02 3.7168435735737401e-02 -4.2048826990194288e-01
H 5.8731229999999996e+00 -1.3043100000000001e+00 1.8614409999999999e+00 -2.8687049682654925e-01 -1.3275439656894444e-01 -3.4943865691336117e-03
H 4.4208340000000002e+00 3.0858509999999999e+00 -6.9735000000000003e-01 4.8779487062700841e-03 3.8858781925135685e-02 3.9051151878121172e-02
H 4.4073680000000000e+00 2.9439340000000001e+00 1.0346089999999999e+00 -3.8478618583135762e-03 -4.0969914889535365e-02 1.1596293193708472e-02
H 2.3416779999999999e+00 1.4600000000000000e+00 8.5762899999999997e-01 -1.3288531715175680e-01 4.4500656860101944e-03 -4.7884897361527748e-02
H 2.1106170000000000e+00 3.1734650000000002e+00 5.5304600000000004e-01 -4.5282580812279802e-02 -5.5134226113742451e-03 -7.1242445740170954e-02
H 3.6739679999999999e+00 2.1952010000000000e+00 -2.3543340000000001e+00 -4.9596583708768586e-04 -1.1780348198445427e-01 -1.6803409978044850e-01
H 4.6098600000000001e-01 1.1750300000000000e+00 -4.4578829999999998e+00 9.7371489268789788e-02 4.7168485122823178e-02 -5.7725846873035579e-02
H -9.8957899999999999e-01 1.1752579999999999e+00 -2.6431010000000001e+00 7.1062828459823910e-02 1.0698052525771955e-02 -3.4975798794999308e-01
H -1.0854910000000000e+00 2.4337789999999999e+00 -5.5003999999999997e-02 1.8667753015857189e-02 -1.7014019338227330e-02 -2.6492561547501570e-01
H 2.5846100000000000e-01 1.8504560000000001e+00 8.6224000000000001e-01 -6.6145541872229596e-02 7.9897705228706484e-02 1.3040944746548436e-02
H -2.0206070000000000e+00 -6.2553999999999998e-02 -1.5938200000000000e+00 -7.9941362563666296e-02 4.4120904894638747e-02 1.1581843592856047e-02
H -3.0877390000000000e+00 -2.0947550000000001e+00 -9.2971499999999996e-01 1.1507024485239397e-02 -1.0145542983711578e-01 6.5723623811752202e-02
H -2.8271730000000002e+00 -3.0011329999999998e+00 1.3471770000000001e+00 1.5999950464169507e-01 -5.9050325055085083e-02 1.0511292720306037e-01
H -1.3842429999999999e+00 -1.7756010000000000e+00 2.9637359999999999e+00 8.7887306058755721e-02 5.8924186724512141e-02 8.4872635953509214e-03
H -2.7281100000000003e-01 2.8868800000000000e-01 2.3086389999999999e+00 2.2707110652015715e-02 8.9232250223507240e-02 -7.1737794512453545e-02
H 6.8163260000000001e+00 3.8002000000000001e-02 -2.7680699999999998e+00 -1.3217142459433967e-01 2.7835957908033671e-01 1.4707276830615460e-02
H 5.2222499999999998e+00 -6.2768999999999997e-01 -2.4182190000000001e+00 -1.7192808723294223e-01 2.2380266851381911e-01 1.7011818473755858e-01
H 7.5249660000000000e+00 -1.8917870000000001e+00 -1.8255779999999999e+00 -2.8773783283216437e-02 -3.8214052047955235e-02 1.3533722415476509e-02
H 6.0926510000000000e+00 -2.1005600000000002e+00 -8.3293899999999998e-01 8.8594410903316934e-02 7.0485770022934532e-02 3.4813695870703276e-01
H 7.4150840000000002e+00 -9.6414400000000000e-01 -3.4695500000000001e-01 -1.0383323764144668e-01 -9.7671588452329840e-03 8.3267444707212770e-02
O -1.3425730000000000e+00 -5.1342549999999996e+00 7.5732400000000000e-01 1.6972573152152404e+00 1.5197033453101969e+00 -1.7715526376565061e+00
P -2.5724700000000000e-01 -6.1521629999999998e+00 8.0741700000000005e-01 -1.7077978619495140e+00 -4.0644163293606566e+00 3.3236487999096807e+00
N -9.6774700000000002e-01 -7.5209060000000001e+00 8.9825000000000002e-02 1.8685699317271764e-02 2.6217530621668134e-01 -3.6449750641667433e-01
C -9.5687500000000003e-01 -8.8750199999999992e+00 6.0803499999999999e-01 3.4584080914524151e-01 -1.6502637165425918e-01 8.1571699200769995e-02
C -1.5212730000000001e+00 -7.3477100000000002e+00 -1.2451530000000000e+00 -1.2555926667544312e-01 3.5101217216632991e-01 -9.7370049450911267e-02
N -7.2252999999999998e-02 -6.3425180000000001e+00 2.4940009999999999e+00 -3.5297479820097233e-01 2.5884670439184748e-01 7.8995402217469812e-02
C 1.5341199999999999e-01 -7.6100610000000000e+00 3.1653460000000000e+00 4.9497693931546871e-01 -8.3032960081280166e-02 2.9956902202834219e-02
C -8.6026800000000003e-01 -5.4578259999999998e+00 3.3456809999999999e+00 -1.7927686626290990e-01 9.1486542222686831e-02 -9.3434924344745138e-03
N 1.3825000000000001e+00 -6.5904030000000002e+00 5.4086800000000002e-01 8.8258521961081901e-02 2.3327563142881402e+00 -1.4253312023706606e+00
C 2.3119610000000002e+00 -5.5035550000000004e+00 9.4114100000000001e-01 6.4239120156917129e-02 -5.9439487258825842e-02 3.7656256317397957e-01
C 1.7534179999999999e+00 -6.9857899999999997e+00 -8.2975600000000005e-01 -1.3000336740167082e-01 -3.9713761208028980e-01 -9.9941255649569474e-02
H 2.9576999999999999e-02 -9.1869899999999998e+00 9.6001599999999998e-01 -2.4978834731938970e-02 4.7482931063081470e-02 2.9690278784970079e-02
H -1.2282420000000001e+00 -9.5826849999999997e+00 -1.7505899999999999e-01 -3.6802927682858269e-02 1.2196743528917302e-01 -9.7495313606343670e-02
H -1.6743200000000000e+00 -9.0049370000000000e+00 1.4227510000000001e+00 4.3283187999667731e-02 -2.3760954494968022e-02 7.6424504551214139e-03
H -7.4795400000000001e-01 -7.3286959999999999e+00 -2.0261380000000000e+00 -6.0806954288962989e-02 -8.9185044765918181e-02 -2.1446550099359672e-02
H -2.0798719999999999e+00 -6.4122789999999998e+00 -1.3133189999999999e+00 3.6643159320408146e-02 9.1548762923866316e-03 5.6583505652620554e-02
H -2.2151580000000002e+00 -8.1512239999999991e+00 -1.4872190000000001e+00 6.3171495199984560e-03 -4.7802622054182987e-02 1.1381472366231279e-01
H -7.6875000000000004e-01 -8.1903509999999997e+00 3.2765610000000001e+00 3.0741551524567864e-02 -1.4033956284132707e-02 2.4796800614438667e-02
H 5.5021699999999996e-01 -7.4307169999999996e+00 4.1678090000000001e+00 -3.9947901306112067e-02 9.3301792613047885e-02 -3.0495342667338637e-03
H 8.9975099999999997e-01 -8.2131830000000008e+00 2.6526540000000001e+00 -7.5167800653589883e-02 2.8933037424995658e-02 -1.4156628767383758e-01
H -1.9085620000000001e+00 -5.7715610000000002e+00 3.4204159999999999e+00 -7.6407535269074293e-03 4.9408636053552869e-02 2.9446435342827020e-02
H -8.3200200000000002e-01 -4.4354240000000003e+00 2.9792980000000000e+00 -7.0024822613535459e-02 -3.5621762801789927e-02 -1.0183518180257896e-01
H -4.3489000000000000e-01 -5.4487769999999998e+00 4.3517820000000000e+00 5.5590648381237555e-02 -1.4043855032047622e-01 -2.2036824007491296e-02
H 2.1911930000000002e+00 -4.6124520000000002e+00 3.1644800000000001e-01 9.8538410237274068e-02 -2.1314858185540950e-02 -6.2600401722877674e-02
H 3.3421690000000002e+00 -5.8483510000000001e+00 8.5670400000000002e-01 -2.8029294595880463e-02 -8.8367691009514998e-02 -5.8124470737120987e-02
H 2.1411950000000002e+00 -5.2213000000000003e+00 1.9774620000000001e+00 -1.1856823096622389e-01 -5.5641916182126758e-02 1.0514270057990576e-03
H 1.5065050000000000e+00 -6.2250550000000002e+00 -1.5764370000000001e+00 8.1797750607699726e-02 1.3820811816042665e-02 -3.2765164130779546e-02
H 1.2744810000000000e+00 -7.9219840000000001e+00 -1.1090500000000001e+00 -1.5779066974982348e-01 6.3851552037256176e-02 6.7681981814826070e-02
H 2.8273950000000001e+00 -7.1653430000000000e+00 -8.6768800000000001e-01 2.0964622486587689e-02 9.0968156364347685e-02 8.3925338633568367e-02
O -1.9174400000000000e+00 5.9840030000000004e+00 -4.8921500000000001e-01 7.6774699112513722e-01 2.4651668000723834e+00 -1.0224301021667357e+00
P -3.3021010000000000e+00 6.3766239999999996e+00 -8.7629100000000004e-01 -3.1879529068369594e+00 -3.9546008541221713e+00 1.3040000637396654e+00
N -4.1246359999999997e+00 6.4584380000000001e+00 6.0470599999999997e-01 2.5876334922109384e-01 2.5596465179762729e-01 8.1417175889163085e-02
C -5.4061279999999998e+00 5.8549819999999997e+00 9.1438299999999995e-01 -3.1093576711455873e-01 8.7109855826414742e-02 -2.4431688511476132e-01
C -3.5602140000000002e+00 7.3364960000000004e+00 1.6217950000000001e+00 3.8299839482482284e-01 6.5354207681774190e-02 -2.1427575356603283e-04
N -3.7620719999999999e+00 5.0043780000000000e+00 -1.7985160000000000e+00 3.1534901460053216e-01 -1.9080564228252858e-01 1.0451386012145629e-01
C -5.0727460000000004e+00 4.3807479999999996e+00 -1.7694080000000001e+00 -2.6742282531913075e-01 1.7433494850517925e-01 -3.2461953912180530e-01
C -2.7284760000000001e+00 4.0101430000000002e+00 -2.0084029999999999e+00 2.2621287222041703e-01 -1.6196135934533110e-01 3.8895857235507925e-02
N -4.3628559999999998e+00 7.3765599999999996e+00 -1.7771200000000000e+00 2.2444798460256439e+00 1.5219296122828123e+00 -3.6357088076770383e-01
C -3.8413700000000000e+00 7.6456540000000004e+00 -3.1431160000000000e+00 -1.3400127885175442e-01 -3.0095294411994827e-01 -2.1888275940080318e-01
C -4.7070200000000000e+00 8.6852950000000000e+00 -1.1886200000000000e+00 -2.9314707433561332e-01 -1.7352325117615600e-02 3.3363310757382730e-01
H -6.1526180000000004e+00 6.0194320000000001e+00 1.3297000000000000e-01 5.2064791507044558e-02 -3.1668434283873774e-02 -1.7426578582494256e-02
H -5.8240129999999999e+00 6.2956180000000002e+00 1.8188990000000000e+00 1.3487062031798608e-01 8.0101079504049322e-02 2.4588592664789310e-02
H -5.3181139999999996e+00 4.7790840000000001e+00 1.0910409999999999e+00 -4.2255723677132838e-02 1.3904064142662152e-02 -2.4596357396919972e-02
H -3.7763149999999999e+00 8.3962039999999991e+00 1.4324269999999999e+00 -5.1801870478010936e-02 -2.4512128051025768e-02 8.8399726957312366e-02